<?xml version="1.0"?>
<VTKFile type="UnstructuredGrid" version="0.1" byte_order="LittleEndian">
  <UnstructuredGrid>
    <Piece NumberOfPoints="18598" NumberOfCells="9753">
      <PointData>
        <DataArray type="Float64" Name="ux" format="ascii">
0.0945755 0.091878 0.0891806 0.0864829 0.0837851 0.0389201 0.0387309 0.0385414 0.0383531 0.0381647 0.0830878 0.0849711 0.0868546 0.0887379 0.0906211 0.0925042 0.0943873 0.0313931 0.0327225 0.034052 0.0353814 0.036711 0.0168994 0.0179108 0.0189188 0.0199273 0.0209376 0.0442261 0.0470991 0.0499723 0.0528456 0.055719 0.0585929 0.061467 0.0458233 0.0478016 0.04978 0.0517585 0.0537371 0.0557157 0.0576944 0.0404189 0.0417512 0.0430849 0.044418 0.0457522 0.0645648 0.0668003 0.0690357 0.071271 0.0735062 -0.042511 -0.0474791 -0.0524478 -0.0574172 -0.0623875 -0.0207815 -0.0217213 -0.0226613 -0.0236005 -0.0245399 -0.071906 -0.0704874 -0.0690685 -0.066878 -0.0663165 -0.0676375 -0.0673998 -0.0378458 -0.0394844 -0.0411229 -0.0121045 -0.0135508 -0.014997 -0.0164428 -0.0178891 -0.0436016 -0.047296 -0.0509903 -0.0546847 -0.0564805 -0.0600071 -0.0640682 -0.0671022 -0.0701363 -0.0947053 -0.0986182 -0.102531 -0.106444 -0.110357 -0.11427 -0.0345152 -0.0353334 -0.0361506 -0.0369687 -0.037786 -0.118445 -0.120038 -0.12163 -0.123222 -0.124813 -0.126405 -0.0278213 -0.0328782 -0.0379357 -0.0429942 -0.0480533 -0.00303867 -0.00331118 -0.00358435 -0.0038579 -0.00413168 -0.0488009 -0.0510599 -0.0533176 -0.0413864 -0.0430561 -0.0572008 -0.059122 -0.0511505 -0.0549247 -0.0586988 -0.0624729 -0.0662471 -0.0700212 -0.0372761 -0.0396124 -0.0419462 -0.0442836 -0.0466195 -0.0826222 -0.0859578 -0.0892935 -0.0926291 -0.0959646 -0.0993002 0.069221 0.0675621 0.0659037 0.0642477 0.0625918 0.0609326 0.0592702 0.0351268 0.0336789 0.0322333 0.030784 0.0293415 0.0528852 0.05017 0.0474547 0.0447395 0.0420243 0.00646606 0.00119428 -0.00408221 -0.00936092 -0.0146407 -0.00289028 -0.00272562 -0.0025608 -0.00239568 -0.00223043 -0.0199796 -0.0177799 -0.015571 -0.013357 -0.0103492 -0.0114731 -0.00915434 0.0471148 0.0436954 0.0402824 0.0368711 0.00544644 0.00503897 0.00463209 0.00422505 0.00381876 0.0367416 0.0321155 0.0210097 0.0185146 0.0281416 0.0250405 0.0219392 0.0188363 0.00533041 0.00804746 0.0107651 0.00555628 0.00539078 0.00523293 0.00505801 0.00489282 0.0102869 0.0101462 0.0100058 0.00986876 0.00973292 0.00959768 0.00946287 0.00932815 0.00919289 0.00660188 0.00535507 0.00410758 0.00286085 0.00161577 0.000371364 -0.00267458 -0.00369564 -0.00471634 -0.00573658 -0.00675652 -0.00909206 -0.0116007 -0.0141095 -0.0166183 -0.0191277 -0.0216374 -0.0344759 -0.0315537 -0.0286316 -0.0257099 -0.0227884 -0.006208 -0.00554177 -0.00487622 -0.00421036 -0.00354431 -0.0196387 -0.0203446 -0.0210492 -0.0217527 -0.0224557 -0.0231584 -0.0238611 0.122938 0.11927 0.1156 0.0784327 0.105627 0.100681 0.0049978 0.00481137 0.00478103 0.00523102 0.00581919 0.0998765 0.093433 0.063969 0.086634 0.0799324 0.0732317 0.0188751 
0.0184531 0.0180381 0.017629 0.0172164 -0.000169893 -0.000363247 -0.000556028 -0.000748271 -0.000940331 0.0104596 0.00528179 -0.00291185 -0.005881 -0.00490595 -0.0106591 -0.0164124 0.0105 0.00893585 0.00737166 0.00580691 0.00424252 0.00268051 0.00751685 0.00684705 0.00617688 0.00550659 0.00483557 -0.000509895 0.000302919 0.00111596 0.00192846 0.00274087 0.00355324 -0.0320129 -0.0288558 -0.0256981 -0.0225403 -0.0193826 -0.0123182 -0.0114563 -0.0105983 -0.00973555 -0.008875 -0.017546 -0.0144019 -0.0112579 -0.00811395 -0.00497 -0.00182606 0.00131788 -0.0289061 -0.0294441 -0.0294781 -0.0325889 -0.0340943 -0.000593774 -0.000630202 -0.000666569 -0.000703079 -0.000739718 -0.0530191 -0.0488168 -0.0341457 -0.0308679 -0.0381763 -0.0327824 -0.0273886 -0.113343 -0.109437 -0.0882494 -0.104681 -0.101146 -0.0976105 -0.0061672 -0.00610339 -0.00604025 -0.00597742 -0.00591483 -0.093798 -0.0877993 -0.0685773 -0.0794579 -0.0734618 -0.0674659 -0.132867 -0.129845 -0.126824 -0.123803 -0.120782 -0.117761 -0.0577103 -0.0565947 -0.055476 -0.054356 -0.0532342 -0.1124 -0.10941 -0.106421 -0.103432 -0.100442 -0.0974531 0.0460351 0.0468708 0.0477064 0.0485423 0.0421624 0.0424823 0.0487874 0.0525483 0.0143019 0.0136103 0.0129193 0.0122282 0.0115376 0.0451088 0.0432837 0.0414628 0.0396423 -0.0657818 -0.064269 -0.0627578 -0.0612494 -0.0597478 -0.0582504 -0.021599 -0.0211827 -0.0207719 -0.0203536 -0.0199463 -0.0535095 -0.053101 -0.0526923 -0.0522854 -0.0518803 -0.0514758 0.0853268 0.0826709 0.080015 0.077359 0.0747027 0.0720459 0.0693888 0.0667317 0.0404305 0.0393236 0.0382201 0.0371157 0.0360113 0.0608834 0.0585901 0.0562968 0.0540035 0.0616193 0.0647883 0.0679553 0.0711185 0.0742807 0.0385838 0.0391116 0.039641 0.040171 0.0407004 0.074894 0.076485 0.0780759 0.0796668 0.0812568 0.0828473 0.0844413 -0.0191444 -0.0218879 -0.0246315 -0.027375 -0.0301187 -0.0328623 -0.0195954 -0.0206607 -0.0217261 -0.0227964 -0.0238727 -0.0374188 -0.0402819 -0.043145 -0.0460081 -0.0488712 -0.0517346 0.00889234 0.00854393 0.00819116 0.00782929 0.00745262 0.00705411 0.0066479 0.000363056 0.000117464 -0.000128832 -0.000375273 -0.00062244 0.00433279 0.0033472 0.00236757 0.00138972 0.000412087 -0.0379946 -0.0355152 -0.0330357 -0.0305563 -0.028077 -0.0255975 -0.0231181 -0.0206387 -0.0178109 -0.0170637 -0.0163159 -0.0155714 -0.0148238 -0.0287567 -0.0261031 -0.0234495 -0.0207958 0.0318283 0.0306594 0.0294904 0.0283209 0.0271508 0.0259804 0.0248099 0.0236394 0.0113164 0.0102268 0.00910252 0.00799804 0.00689666 0.0166664 0.0163848 0.0161033 0.0158221 0.00797929 0.0109102 0.0138407 0.00485996 0.00578934 0.00671879 0.00764843 0.00857778 0.0185242 0.0207946 0.023065 0.0253352 0.0276056 0.0298753 0.0321435 0.0344081 0.0366714 -0.0726613 -0.0699254 
-0.0671889 -0.0644517 -0.0617142 -0.0176658 -0.0170483 -0.0164512 -0.015817 -0.0151992 -0.0598018 -0.0583298 -0.0568615 -0.0535476 -0.0519595 -0.0523344 -0.050463 -0.00753741 -0.00712183 -0.00670622 -0.00629093 -0.00587508 -0.00545901 -0.00432749 -0.00472464 -0.0051219 -0.00551905 -0.00591644 -0.00647258 -0.00700568 -0.00753873 -0.00807162 -0.00860452 -0.00913775 -0.0546799 -0.0522687 -0.0498575 -0.0474463 -0.045035 -0.0426238 -0.0402125 -0.0310744 -0.0298231 -0.0285738 -0.0273248 -0.0260749 -0.0302483 -0.0317259 -0.0332036 -0.0346812 -0.0361589 -0.0884409 -0.08312 -0.0777998 -0.0628327 -0.0590944 -0.0642539 -0.058968 -0.0104128 -0.00977852 -0.00914553 -0.00851724 -0.00789149 -0.0552255 -0.0500715 -0.0449124 -0.0397513 -0.0345894 -0.0508687 -0.0494873 -0.0481061 -0.0467252 -0.0453444 -0.0252731 -0.0249575 -0.0246361 -0.0243212 -0.0240074 -0.0489511 -0.0472286 -0.0455061 -0.0437833 -0.0420606 -0.0403378 -0.0386151 0.0592791 0.06118 0.0630811 0.0649826 0.0668851 0.0687883 0.0447144 0.0458943 0.0470755 0.048255 0.0494375 0.0781403 0.0793697 0.0805984 0.0818267 0.0830553 0.0842838 0.0188243 0.0197657 0.0207076 0.0216496 0.022592 0.0235351 0.0123673 0.0134539 0.0145399 0.015645 0.0167358 0.0301343 0.0323339 0.0345335 0.0367335 0.0389334 0.0411339 -0.106292 -0.101122 -0.0959513 -0.0641811 -0.0610098 -0.091423 -0.0851088 -0.0068113 -0.0068386 -0.00686505 -0.00689073 -0.00691835 -0.0858989 -0.0795721 -0.0711165 -0.0685933 -0.0623127 -0.00112654 -0.00451108 -0.00789673 -0.0112848 0.00292953 0.0031319 0.00333331 0.00353454 0.00373662 -0.00665895 -0.00644389 -0.00623321 -0.00662309 -0.00748054 -0.00475791 -0.011028 -0.0172906 -0.00708867 -0.00439865 -0.00170861 0.000980603 0.00584181 0.00493321 0.0040242 0.0031142 0.00220388 -0.00976523 -0.0116414 -0.0135167 -0.00882708 -0.0108166 -0.0199041 -0.0226087 -0.0253122 0.0245123 0.0244612 0.0244083 0.0243578 0.0100146 0.00951866 0.00901905 0.00853912 0.00802462 0.0224987 0.0207822 0.019071 0.0153176 0.0131867 0.0145969 0.0110933 0.0075904 0.046989 0.0454252 0.0434851 0.0427751 0.0418838 0.0409926 0.00517918 0.00479659 0.00441361 0.00403134 0.00364875 0.0402451 0.0356983 0.0311515 0.0251962 0.0245089 0.0197724 -0.119895 -0.116391 -0.112886 -0.109381 -0.105877 -0.102372 -0.0377396 -0.036847 -0.0359494 -0.0350476 -0.0341568 -0.0959326 -0.0932762 -0.0906198 -0.0879633 -0.0853066 -0.0826494 -0.0359267 -0.0308583 -0.0257904 -0.0207227 -0.015655 -0.000999534 -0.000528394 -5.71978e-05 0.000413487 0.000884023 -0.0142385 -0.00971969 -0.00520264 -0.00167334 -0.00373259 0.00104119 0.00581472 0.0692046 0.0672813 0.0653582 0.0634358 0.061515 0.0595946 0.057674 0.037299 0.0369011 0.0364981 0.036096 0.0356936 0.0586235 0.0587588 0.0588941 0.0590295 0.0591649 -0.0617404 -0.0599749 -0.0582097 
-0.05531 -0.0535667 -0.0521106 -0.0516079 -0.0136643 -0.0132503 -0.0128484 -0.0124481 -0.0120503 -0.0550223 -0.0534391 -0.0518531 -0.0502657 -0.0486779 0.02051 0.0200435 0.019577 0.0191106 0.0186441 0.00516353 0.0060645 0.00696494 0.00786536 0.00876618 0.0261761 0.0294642 0.0327523 0.0360404 0.0393286 0.0426169 0.0459051 0.122461 0.117782 0.113103 0.108423 0.103744 0.0261296 0.025716 0.0253017 0.0248881 0.0244757 0.105506 0.102245 0.0989843 0.0879594 0.0841026 0.0857045 0.081947 0.0321559 0.0296557 0.0271555 0.0246553 0.0221552 0.019655 0.0130419 0.0132657 0.0134848 0.0137104 0.0139299 0.0236917 0.0272417 0.0307919 0.0343426 0.0378948 0.0414471 0.0241885 0.0286607 0.0331329 0.0376052 0.0420775 0.00960396 0.00981675 0.0100293 0.010241 0.0104542 0.0422656 0.0383681 0.0344708 0.0297559 0.0259838 0.0230559 0.0195758 -0.023403 -0.0219621 -0.020521 -0.0190797 -0.0176383 -0.0161969 -0.0147556 -0.00836457 -0.00798186 -0.00761239 -0.00723725 -0.00686798 -0.0106683 -0.00938355 -0.00809912 -0.00681449 -0.00552868 -0.00579727 -0.00684056 -0.00788621 -0.00893006 -0.00996984 -0.0110001 -0.0120254 -0.00798225 -0.00829876 -0.00861605 -0.00893352 -0.00925171 -0.0130982 -0.0140721 -0.015046 -0.01602 -0.016994 -0.0471739 -0.0439005 -0.0406271 -0.0373535 -0.0349359 -0.0321198 -0.034053 -0.031016 -0.0279789 -0.0181701 -0.0174218 -0.0166777 -0.0159329 -0.0151902 -0.0206655 -0.0251373 -0.0296091 0.0649426 0.0685014 0.0720604 0.0756202 0.0791809 0.0827427 0.0863067 0.0275199 0.0287907 0.0300612 0.0313316 0.0326015 0.0964669 0.0976639 0.0988609 0.100058 0.101253 0.0166593 0.0175128 0.0183667 0.000868832 0.00075887 0.000649089 0.000539107 0.000429141 0.0108702 0.00928249 0.00725922 0.00460648 0.00338351 0.00329813 0.00322273 0.00548354 0.00595743 0.0342988 0.0316393 0.0289815 0.0197688 0.0174563 0.0244458 0.0217759 0.019106 0.00277868 0.00256219 0.00248906 0.00242716 0.00242618 0.0166235 0.0129666 0.00932691 0.00569166 -0.0153319 -0.00899754 -0.00266303 -0.00131341 0.00599321 0.0114829 0.000167591 0.000242344 0.000317437 0.000392474 0.000467319 0.00357993 0.000356048 0.000197466 -0.000244611 0.000911592 0.00206702 -0.0464007 -0.0437802 -0.0411604 -0.0385412 -0.0359225 -0.0333041 -0.030686 -0.028068 -0.0162801 -0.0152335 -0.0141873 -0.0131414 -0.0120962 -0.0230656 -0.0197779 -0.01649 -0.013202 0.0173294 0.0185059 0.0196823 0.0208588 0.0220354 0.0232119 0.0180101 0.0189341 0.0198587 0.0207842 0.0217102 0.026255 0.0278047 0.0293544 0.0309041 0.0324538 0.0340036 -0.0657861 -0.0634574 -0.0611289 -0.0588003 -0.0564718 -0.0541431 -0.0272991 -0.0262047 -0.025103 -0.0240054 -0.0229106 -0.0468174 -0.0441799 -0.0415423 -0.0389048 -0.0362673 -0.0336297 -0.0692696 -0.0630207 -0.0544063 -0.0526117 
-0.0463077 -0.00537185 -0.00525379 -0.00513556 -0.00501773 -0.0049001 -0.0472395 -0.0413431 -0.0251068 -0.0220347 -0.0336654 -0.0273251 -0.0209847 0.0116253 0.00999186 0.0083586 0.00672496 0.00509119 0.00178869 0.000791971 -0.000205765 -0.00120374 -0.00220212 0.000123288 -0.0030359 -0.00619497 -0.00935392 -0.0125127 -0.0156713 -0.0188299 -0.0550846 -0.0525734 -0.0500612 -0.0475477 -0.00639099 -0.0060853 -0.00577895 -0.00547263 -0.00516934 -0.0447918 -0.0404048 -0.0360183 -0.0316332 -0.0209705 -0.0183316 -0.0273972 -0.0264448 -0.133298 -0.131958 -0.130619 -0.12928 -0.12794 -0.1266 -0.125261 -0.123921 -0.0891651 -0.0878891 -0.0866005 -0.0853375 -0.0840503 -0.113911 -0.111371 -0.108832 -0.106293 0.0123814 0.0107142 0.00904638 0.00737707 0.00570664 0.00403627 0.00108184 0.000717179 0.000354201 -5.23422e-06 -0.000373297 0.000394588 -0.00185997 -0.00411427 -0.00636892 -0.00862419 -0.010881 0.0789277 0.0765945 0.0742613 0.0719283 0.0695953 0.067262 0.0649285 0.0465858 0.0455648 0.0445437 0.0435242 0.0425037 0.0584284 0.0561371 0.0538458 0.0515542 0.0492623 0.0411322 0.0438793 0.0466263 0.0493732 0.0521201 0.0325231 0.0333504 0.0341746 0.0349911 0.0358227 0.0570942 0.0599131 0.0627323 0.0655523 0.0683728 0.0711935 0.0740144 -0.00489351 -0.000532595 0.00382843 -0.00132375 -6.37683e-05 -0.00162482 -0.000475446 -0.000450684 -0.000226057 5.90078e-07 0.00022347 0.000447977 0.00108146 0.00363888 0.00620227 0.00877765 0.0113643 0.0898013 0.0873554 0.0849096 0.0824639 0.0800184 0.0775734 0.0751287 0.0422803 0.0412051 0.0401317 0.039057 0.0379826 0.0700798 0.0680569 0.0660337 0.0640103 0.0619867 0.0418129 0.0392541 0.0366952 0.0341364 0.0315776 0.0290188 0.0264598 0.0239018 0.027352 0.0267969 0.0262423 0.0256899 0.0251374 0.0236624 0.0223501 0.0210378 0.0197255 0.0445796 0.039956 0.0353337 0.0296502 0.0265756 0.027285 0.0238234 0.00440947 0.00416693 0.00392456 0.00368224 0.00344026 0.0219877 0.0197836 0.0175776 0.0153652 0.0131521 -0.0873669 -0.0848956 -0.0824245 -0.0799532 -0.0590026 -0.0578281 -0.0566561 -0.0554828 -0.0543134 -0.0742186 -0.0719116 -0.0696047 -0.0672976 -0.0649902 -0.0626846 -0.0603781 -0.0580715 -0.108052 -0.105722 -0.103391 -0.101061 -0.0987304 -0.0963993 -0.0703047 -0.0689961 -0.0677444 -0.0664628 -0.0651249 -0.0942951 -0.0918772 -0.0894595 -0.0870415 -0.0846234 -0.0822046 -0.0261708 -0.0276745 -0.0291785 -0.0306827 -0.0187756 -0.020089 -0.0214025 -0.0227152 -0.0240501 -0.036899 -0.0395202 -0.0421415 -0.044763 -0.0473851 -0.0500101 -0.0526367 -0.0552639 -0.00159294 0.00156813 0.00472875 0.00401695 0.00634311 0.00962918 0.0102472 0.00204077 0.00211511 0.00219239 0.00226875 0.00234415 0.0121626 0.011658 0.0111526 0.0106449 0.0101353 -0.0346636 -0.0328156 -0.030966 -0.0291139 -0.0272609 
-0.0254076 -0.0115812 -0.0106033 -0.00962216 -0.00864518 -0.00765759 -0.0182431 -0.0161726 -0.0141022 -0.0120314 -0.00996179 -0.00789259 0.012332 0.00832755 0.0051239 0.00405495 0.00541709 0.0050222 0.0046272 -0.0028713 -0.00304784 -0.00322514 -0.00340234 -0.00357982 0.0090204 0.00641559 0.00381083 0.00120579 -0.00139941 0.057501 0.0529387 0.0483767 0.0455579 0.0425218 0.037981 0.0071394 0.00681746 0.00650273 0.00618386 0.00585945 0.0342459 0.0316861 0.0291312 0.0278435 0.0262332 0.0244823 -0.0109214 -0.00931275 -0.00770634 -0.00610452 -0.00451248 -0.00298615 -0.00283563 -0.00267634 -0.00251974 -0.00236252 -0.00209748 -0.00277522 -0.00345551 -0.00414239 -0.00207471 -0.000844415 0.000424161 -0.0134513 -0.0118124 -0.00828447 -0.00743822 -0.00418631 -0.000934728 0.00220572 0.0024961 0.00278895 0.00308034 0.00337245 0.00492537 0.00603371 0.0071359 0.00456646 0.00410916 0.00333981 -0.0206135 -0.0160207 -0.0114285 -0.00683668 -0.00224494 0.00214378 0.00256591 0.00298843 0.00341143 0.00383456 -0.00587028 -0.00111245 0.00153979 0.00461521 0.00173309 0.00614436 0.0105557 0.0163299 0.0149801 0.0136307 0.0122814 0.0109326 0.00958401 0.00823573 0.00688772 0.00553991 0.0129675 0.0122331 0.0114992 0.0107563 0.010031 0.0016955 0.00151268 0.00132991 -0.0102622 -0.0145838 -0.0189054 -0.0174152 -0.0201008 -0.0245426 -0.0288665 -0.0331905 -0.00493163 -0.00550162 -0.00607207 -0.00664288 -0.00721363 -0.0343378 -0.0355003 -0.0366651 -0.0378333 -0.0508373 -0.0484212 -0.0460044 -0.0435886 -0.0411716 -0.0387557 -0.0363397 -0.0231943 -0.0219607 -0.0207285 -0.0194956 -0.0182633 -0.0301719 -0.0277461 -0.0253203 -0.0228944 -0.0204686 -0.111641 -0.111306 -0.110971 -0.110635 -0.04608 -0.0451386 -0.0441949 -0.0432527 -0.0423116 -0.107061 -0.103828 -0.100596 -0.0973632 -0.0941309 -0.0908985 -0.087666 -0.084433 0.0889609 0.083815 0.0786705 0.0811146 0.0745267 0.0679402 0.0613551 0.0135781 0.0137074 0.0138374 0.0139681 0.0140988 0.0696028 0.0635848 0.057567 0.0515487 0.0455304 -0.0121859 -0.0096498 -0.00711765 -0.00321201 -0.00206795 0.000906981 0.00401384 0.00311563 0.00221806 0.00132074 0.000423976 -0.0111235 -0.013386 -0.0156491 -0.0164452 -0.0214414 -0.0244178 0.00454989 0.00507496 0.00560436 0.00613549 0.00618171 0.00676309 0.007924 0.00773918 -9.70924e-05 0.000837223 0.00177121 0.0027051 0.0036385 0.0130867 0.0164613 0.0198356 0.0232097 -0.0777867 -0.0734869 -0.0691876 -0.0648893 -0.060591 -0.024425 -0.0237804 -0.0231364 -0.0224931 -0.0218498 -0.0584831 -0.0576794 -0.0568787 -0.0560816 -0.0552886 -0.0544973 -0.0537031 0.061091 0.0649275 0.068764 0.0726017 0.0764395 0.0802771 0.0394957 0.04077 0.042044 0.0433193 0.0445945 0.0751805 0.0795845 0.0839883 0.088392 0.0927957 0.0971992 0.0418691 0.0386678 0.0354664 0.032263 0.0290562 0.0258479 
0.022639 0.00960671 0.00854999 0.00749426 0.00643837 0.00538171 0.0164805 0.0129385 0.00939628 0.00585362 0.00231092 0.00744385 0.0100911 0.0127383 0.0153855 0.0180326 0.0206797 0.0233266 0.0259735 0.0286198 0.012114 0.0128617 0.0136078 0.014354 0.0151018 0.0299138 0.0286198 0.0273267 0.0508011 0.0469887 0.0431769 0.0393661 0.0355568 0.0317502 0.00917219 0.00864478 0.00811802 0.00759218 0.00706685 0.0262445 0.0239321 0.0216205 0.0193109 0.0170026 0.0146949 -0.0560822 -0.0589716 -0.061861 -0.0647506 -0.0676404 -0.0705301 -0.0350305 -0.035938 -0.0368436 -0.0377495 -0.0386542 -0.0764448 -0.0785995 -0.0807538 -0.082908 -0.0850621 -0.0872163 0.0204444 0.0201992 0.0199538 0.0197085 0.0194632 0.0058147 0.005108 0.00440243 0.00369673 0.00299601 0.0161509 0.0130643 0.00997825 0.00689405 0.00381047 0.000727259 -0.00235575 -0.00440911 -0.00264479 -0.000878856 0.000891342 0.00266372 0.00443455 0.0062039 0.00205755 0.00251237 0.00296717 0.00342175 0.00387611 0.00866811 0.0103624 0.0120564 0.0137497 0.0154414 0.0227521 0.0237742 0.024793 0.0258069 0.0268172 0.027826 0.0288341 0.0126544 0.0132664 0.013879 0.0144921 0.0151059 0.0315581 0.0337294 0.0359007 0.0380719 0.040243 -0.0650113 -0.0635267 -0.0620424 -0.0605593 -0.0590789 -0.0575997 -0.0561212 -0.0319365 -0.0306576 -0.0293801 -0.0281028 -0.0268244 -0.0498082 -0.0470933 -0.0443782 -0.0416626 -0.038947 -0.0659455 -0.0692485 -0.0725516 -0.0758547 -0.0791579 -0.0824612 -0.029937 -0.0308856 -0.0318345 -0.0327838 -0.0337333 -0.0864025 -0.0899645 -0.0935265 -0.0970886 -0.100651 -0.104214 0.00084323 0.00256815 0.00429313 0.00601817 0.00774401 0.00316485 0.00416637 0.00524642 0.00621429 0.00722812 0.0129625 0.0151268 0.017291 0.0194553 0.0216195 0.0237839 0.0259482 0.0205578 0.0210601 0.0215628 0.0220671 0.0225725 0.0230785 0.0115832 0.0113794 0.011177 0.0109727 0.0107702 0.027498 0.0252887 0.0230791 0.0208689 0.0186574 0.0164448 0.0148383 0.0123563 0.00987435 0.00739252 0.00491065 0.00242883 0.00306618 0.00211769 0.00117084 0.000223352 -0.000724022 0.00147981 0.000849576 0.000219342 -0.000410944 -0.00104128 -0.00167148 0.0968019 0.0924212 0.0880409 0.0836613 0.0792826 0.0749053 0.0259464 0.0250809 0.0242145 0.0233502 0.022492 0.069946 0.0688861 0.0678275 0.0667703 0.0657145 0.0646613 0.0603414 0.0633089 0.0662751 0.069241 0.0722066 0.0751721 0.0781376 0.081103 0.0290878 0.0299663 0.0308458 0.0317239 0.0326035 0.085836 0.0839647 0.0820933 0.0802221 -0.000871664 0.000555879 0.00286757 0.00274728 0.00338258 0.00401781 0.000766283 0.000592165 0.00041765 0.00024239 6.70228e-05 -0.000418526 -9.33624e-06 0.000388835 -0.00407022 -0.0053374 -0.00807109 -0.00634928 -0.00410348 -0.00185765 0.000388222 0.00263415 0.00488013 -0.000829551 
-0.000750601 -0.00067079 -0.000590389 -0.000509822 0.00411732 0.00379617 0.00347479 0.00315225 0.00282876 0.00250505 -0.037781 -0.0359549 -0.0341287 -0.0323025 -0.0304763 -0.02865 -0.0178483 -0.0170485 -0.0162661 -0.0154573 -0.0146686 -0.0221552 -0.0201252 -0.018095 -0.0160645 -0.0140338 -0.0120023 -0.00624211 -0.00595646 -0.00567086 -0.00538607 -0.0051008 -0.00481475 -0.00452851 -0.00427454 -0.0045991 -0.00492437 -0.00525222 -0.0055832 -0.00642549 -0.0069407 -0.00745602 -0.0079697 -0.00848277 0.130374 0.130993 0.131611 0.0793386 0.0785585 0.116966 0.116998 0.11703 0.0103037 0.0102017 0.0101 0.00999819 0.00989653 0.117425 0.120728 0.124031 0.127336 0.0378119 0.0348908 0.0319694 0.0290476 0.0261252 0.0232027 0.009629 0.00847289 0.00731647 0.00616035 0.0050129 0.0188063 0.015794 0.0127815 0.00976903 0.00675633 0.00374333 -0.00660732 -0.0011776 0.00425213 -0.000409766 0.00117105 0.00670082 0.000789288 -0.00512303 -0.0110357 0.000723255 0.00101536 0.00130821 0.0016014 0.0018951 0.00140081 0.00133949 0.00127802 -0.00531556 -0.00481868 -0.00431923 -0.00302885 -0.00265271 -0.00227773 -0.00190411 -0.00153082 -0.000823208 0.000702207 0.00222822 0.00262664 0.00423292 0.00712541 0.00952595 0.0119336 0.0143427 0.0733389 0.071759 0.0701787 0.0685977 0.0670159 0.0654332 0.0638502 0.0622668 0.0350187 0.0344298 0.0338411 0.0332527 0.0326645 0.0579196 0.0559976 0.0540775 0.0521568 -0.136097 -0.129934 -0.077683 -0.0745016 -0.119226 -0.113097 -0.106969 -0.00735435 -0.00733891 -0.00732215 -0.00731202 -0.00730481 -0.107881 -0.101517 -0.0899166 -0.0914684 -0.0850821 0.049862 0.0475073 0.0451528 0.0427982 0.0404434 0.0380887 0.0357339 0.0322906 0.0310807 0.029893 0.0286362 0.0274749 0.0297319 0.0279287 0.0261256 0.0243228 0.0225199 -0.0948317 -0.0912782 -0.0877248 -0.0841712 -0.0325902 -0.0318335 -0.0310764 -0.0303185 -0.0295619 -0.079366 -0.0764929 -0.0736197 -0.0699343 -0.0674226 -0.0673025 -0.0645989 -0.0618952 -0.0103268 -0.00307031 0.0041865 0.00335987 0.0115484 0.0156695 0.000642951 0.000807514 0.000900224 0.00103868 0.00109523 0.0060325 0.0101459 0.0107243 0.0207727 0.0236535 0.0265335 -0.0691397 -0.0688586 -0.068577 -0.0508215 -0.0498059 -0.0664905 -0.0660442 -0.00655369 -0.00641835 -0.00628408 -0.00614936 -0.00601592 -0.064866 -0.0615482 -0.0582313 -0.0549156 -0.0516012 -0.0203875 -0.0146108 -0.0120397 -0.00779554 -0.00275539 0.000381269 0.000474495 0.000567238 0.000661098 0.000757562 -0.00543249 -0.00269764 -0.00424956 -0.00142093 0.00823418 0.0139801 0.0197229 0.104116 0.100915 0.0977156 0.0945167 0.0913185 0.0881211 0.0455782 0.0445709 0.0435637 0.0425575 0.0415517 0.080448 0.0774635 0.074479 0.0714944 0.0685101 0.0655263 -0.0224017 -0.0203991 -0.0183966 -0.016394 -0.0143915 -0.0123889 -0.0103858 -0.00838174 
-0.00683159 -0.006463 -0.00609486 -0.00572892 -0.00536103 -0.00305498 -0.00176839 -0.000481824 0.000804727 0.0321222 0.0284473 0.0247728 0.0210986 0.0174247 0.00221085 0.00209061 0.00196889 0.00184731 0.00172635 0.0208096 0.0198306 0.018854 0.0228833 0.0219405 0.0189643 0.017658 -0.000961582 -0.00210559 -0.00324963 -0.0043937 -0.00553763 -0.00668139 -0.00782477 -0.00896793 -0.0101111 -0.00475982 -0.0052027 -0.00564517 -0.00608768 -0.00653045 -0.0150198 -0.0148889 -0.0147572 0.0316336 0.0301123 0.0285909 0.0270695 0.0255479 0.0240263 0.0225046 0.0159163 0.0147929 0.0136722 0.0125496 0.0114285 0.0342655 0.0316906 0.0291156 0.0265406 0.0239657 -0.00184053 7.18165e-06 0.00185602 0.00370303 0.0055486 0.00739381 -0.000193208 0.000303562 0.0008048 0.0013064 0.00181463 0.0115574 0.0108109 0.010064 0.00931521 0.00856718 0.00781919 -0.0911628 -0.0883934 -0.0856241 -0.082855 -0.080086 -0.0773172 -0.0351638 -0.0340225 -0.0328794 -0.0317387 -0.0305926 -0.0727808 -0.0696393 -0.066496 -0.06335 -0.0602029 -0.0570553 -0.0124313 -0.0118571 -0.0112831 -0.01071 -0.0101365 -0.00956343 -0.00690586 -0.00675 -0.00659021 -0.0064359 -0.00627672 -0.00553243 -0.00569557 -0.00585902 -0.00602341 -0.00618988 -0.0063562 -0.0187295 -0.0222263 -0.0257235 -0.0292209 -0.0327187 -0.0362174 -0.0397166 -0.043216 -0.0267494 -0.0280079 -0.0292667 -0.0305259 -0.0317853 -0.0494439 -0.0520465 -0.054649 -0.0572516 0.00703009 0.00822409 0.0094164 0.0106036 0.0117874 0.0129695 0.0141508 0.00243154 0.0032851 0.00413946 0.0049941 0.0058494 0.0195846 0.0206915 0.0217986 0.0229058 0.0240132 -0.00454373 -0.00350621 -0.00246752 -0.00142588 -0.000221672 -0.000281226 -0.00034112 -0.000401655 -0.000462547 -0.0010763 -0.00283982 -0.00460328 -0.00253994 -0.00206745 -0.00405468 -0.00286246 -0.00167347 -0.0430991 -0.0384127 -0.0230753 -0.0208813 -0.0340266 -0.0291154 -0.0242046 -0.0192945 -0.000487356 -0.00042914 -0.00037145 -0.000314254 -0.000257442 -0.0229801 -0.0166477 -0.0103156 -0.003984 -0.0383703 -0.0375245 -0.0366787 -0.0358329 -0.0349871 -0.0341414 -0.0182966 -0.0174411 -0.0166288 -0.0158087 -0.0149756 -0.0301628 -0.0275739 -0.0249843 -0.0223935 -0.019799 -0.0172019 -0.0141096 -0.0167397 -0.0193696 -0.0219986 -0.0246266 -0.0272535 -0.0298799 -0.0325062 -0.0223034 -0.0233788 -0.0244036 -0.0254481 -0.0265093 -0.0384094 -0.040721 -0.0430344 -0.0453492 0.0546292 0.0558552 0.05708 0.0571795 0.066421 0.0711467 0.00179619 0.00194651 0.00209659 0.00224708 0.0023985 0.0775189 0.0732276 0.0689371 0.0628838 0.0695433 0.0697473 0.0611372 0.0606333 0.0556725 0.06221 0.059686 0.00111748 0.00115722 0.00141868 0.00123681 0.00116419 0.0558274 0.0502408 0.0446574 0.0220811 0.0195163 0.0340323 0.0295008 -0.0145806 -0.0130278 -0.011475 -0.0099221 -0.008369 -0.00681586 -0.00199345 -0.00105865 -0.000213594 
0.000677367 0.00157349 -0.00109874 0.000229493 0.00155773 0.00288596 0.00421392 0.00554228 -0.101261 -0.103811 -0.106361 -0.108911 -0.111461 -0.114012 -0.116563 -0.119115 -0.0644549 -0.0653146 -0.0661709 -0.0670336 -0.067892 -0.130203 -0.133879 -0.137555 -0.141231 -0.0137371 -0.0101726 -0.0066198 -0.00307091 0.00174246 0.00215104 0.0025602 0.00296958 0.00338092 -0.000233401 0.00444634 0.00912603 0.0112134 0.0134576 0.0129226 0.0174719 0.0220205 0.0244693 0.0201489 0.0158286 0.00628548 0.00494796 0.011399 0.0123324 0.0132658 0.00118364 0.0010295 0.000875213 0.000720924 0.0005663 0.0202715 0.0200215 0.0197695 0.0195196 -0.0204909 -0.0178171 -0.0151434 -0.0124699 -0.00979719 -0.00712463 -0.00516185 -0.00424827 -0.00333491 -0.00242121 -0.00150715 -0.000207899 0.00277665 0.00576123 0.00874584 0.0117305 0.0147151 0.00138153 0.00331266 0.00524227 0.00717 0.00357388 0.00440321 0.00522737 0.00604881 0.0068775 0.0107972 0.011377 0.0119568 0.0125366 0.0131163 0.0136965 0.0142762 0.0148559 0.0886889 0.0880943 0.0875012 0.0869106 0.0863238 0.085739 0.0233424 0.0230034 0.0226674 0.0223191 0.0219774 0.0831687 0.0793352 0.075502 0.0716696 0.0678366 0.064002 0.0802548 0.077728 0.0752018 0.0726757 0.0701503 0.0676252 0.0651003 0.0625754 0.0426117 0.0415515 0.0404795 0.0394298 0.0383801 0.0592057 0.0580906 0.0569755 0.0558602 -0.0429687 -0.0377461 -0.0325233 -0.0260369 -0.022141 -0.0259874 -0.0216575 -0.00320991 -0.00293773 -0.00266619 -0.0023953 -0.00212455 -0.020049 -0.0141215 -0.00819588 -0.00227136 0.00365259 -0.0132284 -0.0161952 -0.0191614 -0.0101549 -0.0123453 -0.0264381 -0.0302715 -0.034106 -0.000617433 -0.000879058 -0.00114501 -0.00141592 -0.00168722 -0.0441254 -0.0476176 -0.0511106 -0.0546068 -0.0830495 -0.080978 -0.0789057 -0.0768336 -0.0747615 -0.0726895 -0.0562748 -0.0550766 -0.0538812 -0.0526681 -0.051487 -0.0662513 -0.0639286 -0.0616067 -0.059285 -0.0569633 -0.0546417 -0.000887167 -0.000692742 -0.000492345 0.00284783 0.00306909 0.00329015 0.00351099 0.00373188 0.015112 0.0166546 0.01818 0.0190881 0.0195595 0.0278692 0.0322788 0.0366889 0.0411002 0.0717088 0.0694974 0.0672859 0.0650745 0.0628631 0.0458232 0.0447275 0.0436321 0.0425362 0.0414408 0.0595506 0.0582189 0.0568866 0.0555539 0.0542202 0.0528858 0.0515513 -0.0897974 -0.0852713 -0.0807442 -0.0601922 -0.0734072 -0.0673195 -0.00404604 -0.00394673 -0.00384764 -0.00374844 -0.00364891 -0.0673398 -0.0614238 -0.0555089 -0.0399923 -0.0489905 -0.0430339 -0.00326742 -0.00264787 -0.00202778 -0.00140794 -0.000788086 -0.000168344 0.000451303 0.0010706 -0.00193029 -0.00188857 -0.00184606 -0.00180455 -0.0017622 0.00248866 0.00409063 0.00569085 0.00729112 -0.0184258 -0.0159978 -0.0135717 -0.0111511 -0.00228011 -0.00194083 -0.00160363 -0.0012436 -0.000890949 -0.0126321 